# vtk DataFile Version 4.2
vtk output
ASCII
DATASET POLYDATA
POINTS 518 float
-22.6078 26.2404 -29.3766 -13.7123 26.2404 -28.927 4.07857 -27.1323 -21.1021 
12.974 -27.1323 -21.605 21.8695 -27.1323 -21.5499 -4.81689 -18.2369 -25.2752 
4.07857 -18.2369 -25.8134 12.974 -18.2369 -25.589 21.8695 -18.2369 -24.569 
30.7649 -18.2369 -20.3202 -40.3987 -9.34141 -21.3374 -31.5033 -9.34141 -22.4811 
-22.6078 -9.34141 -22.27 -13.7123 -9.34141 -25.8772 -4.81689 -9.34141 -28.3293 
4.07857 -9.34141 -26.3297 12.974 -9.34141 -27.3773 21.8695 -9.34141 -25.272 
-49.2942 -0.44595 -22.165 -40.3987 -0.44595 -25.6312 -31.5033 -0.44595 -26.392 
-22.6078 -0.44595 -26.3467 -13.7123 -0.44595 -27.9121 -4.81689 -0.44595 -26.9604 
4.07857 -0.44595 -25.7605 12.974 -0.44595 -27.0877 21.8695 -0.44595 -21.2017 
-49.2942 8.44951 -23.846 -40.3987 8.44951 -27.6693 -31.5033 8.44951 -27.7893 
-22.6078 8.44951 -27.6585 -13.7123 8.44951 -27.3737 -4.81689 8.44951 -27.3607 
4.07857 8.44951 -26.9144 -49.2942 17.345 -22.3859 -40.3987 17.345 -27.0838 
-31.5033 17.345 -28.4969 -22.6078 20.1674 -28.866 -22.6078 17.345 -28.6368 
-13.7123 25.5777 -28.866 -13.7123 17.345 -28.087 -4.81689 17.345 -27.0114 
4.07857 17.345 -22.8018 -40.3987 26.2404 -25.4344 -27.978 26.2404 -28.866 
-31.5033 26.2404 -28.4943 -22.6078 30.3341 -28.866 -13.244 26.2404 -28.866 
-13.7123 27.2306 -28.866 -4.81689 26.2404 -27.6827 4.07857 26.2404 -23.4538 
-31.5033 35.1359 -24.8478 -22.6078 35.1359 -28.1916 -13.7123 35.1359 -28.3637 
-4.81689 35.1359 -27.1291 4.07857 35.1359 -24.094 12.974 35.1359 -20.6481 
-22.6078 44.0313 -23.0542 -13.7123 44.0313 -25.1394 -4.81689 44.0313 -24.5545 
4.07857 44.0313 -21.8 -4.81689 -44.9232 -13.3809 4.07857 -44.9232 -14.35 
12.974 -44.9232 -14.3397 21.8695 -44.9232 -12.9916 -22.6078 -36.0278 -11.7284 
-13.7123 -36.0278 -14.9989 -4.81689 -36.0278 -17.3963 4.07857 -30.7451 -19.9705 
4.07857 -36.0278 -18.3279 12.974 -31.7469 -19.9705 12.974 -36.0278 -18.493 
21.8695 -30.761 -19.9705 21.8695 -36.0278 -17.6653 30.7649 -36.0278 -14.6608 
-31.5033 -27.1323 -12.7724 -22.6078 -27.1323 -14.5696 -13.7123 -27.1323 -16.9038 
-3.14008 -27.1323 -19.9705 -4.81689 -26.647 -19.9705 -4.81689 -27.1323 -19.7194 
26.3694 -27.1323 -19.9705 30.7649 -19.787 -19.9705 30.7649 -27.1323 -18.172 
39.6604 -27.1323 -11.4896 -40.3987 -11.7411 -19.9705 -40.3987 -18.2369 -15.843 
-31.5033 -13.7662 -19.9705 -31.5033 -18.2369 -17.2432 -22.6078 -13.0639 -19.9705 
-22.6078 -18.2369 -17.2204 -12.4203 -18.2369 -19.9705 -13.7123 -16.9735 -19.9705 
-13.7123 -18.2369 -19.1685 31.2624 -18.2369 -19.9705 30.7649 -15.2809 -19.9705 
39.6604 -18.2369 -13.7692 -45.355 -9.34141 -19.9705 -49.2942 -6.23053 -19.9705 
-49.2942 -9.34141 -18.3815 29.7381 -9.34141 -19.9705 30.7649 -9.34141 -19.293 
39.6604 -9.34141 -15.2031 -52.1087 -0.44595 -19.9705 12.974 7.47247 -19.9705 
24.1692 -0.44595 -19.9705 21.8695 1.15 -19.9705 30.7649 -0.44595 -17.7087 
39.6604 -0.44595 -16.1857 48.5559 -0.44595 -12.7633 -53.4489 8.44951 -19.9705 
11.8129 8.44951 -19.9705 12.974 8.44951 -18.9538 21.8695 8.44951 -16.4173 
30.7649 8.44951 -17.4698 39.6604 8.44951 -16.4627 48.5559 8.44951 -13.9003 
-51.667 17.345 -19.9705 -49.2942 21.7768 -19.9705 8.4765 17.345 -19.9705 
12.974 17.345 -17.445 21.8695 17.345 -16.5951 30.7649 17.345 -16.6718 
39.6604 17.345 -15.8688 48.5559 17.345 -13.1615 -46.3781 26.2404 -19.9705 
-40.3987 33.123 -19.9705 11.187 26.2404 -19.9705 12.974 30.9716 -19.9705 
12.974 26.2404 -19.1578 21.8695 26.2404 -17.6295 30.7649 26.2404 -16.9194 
39.6604 26.2404 -14.7721 48.5559 26.2404 -11.4461 -38.4129 35.1359 -19.9705 
-40.3987 35.1359 -12.2556 -31.5033 40.8226 -19.9705 15.6276 35.1359 -19.9705 
12.974 38.0163 -19.9705 21.8695 35.1359 -18.087 30.7649 35.1359 -15.0358 
-26.8291 44.0313 -19.9705 -22.6078 46.5289 -19.9705 -13.7123 49.3513 -19.9705 
-4.81689 49.6578 -19.9705 8.63084 44.0313 -19.9705 4.07857 46.5813 -19.9705 
12.974 44.0313 -18.1613 21.8695 44.0313 -14.1495 -4.81689 52.9268 -13.2081 
4.07857 52.9268 -12.0454 -4.81689 -47.7998 -11.0751 4.07857 -49.0288 -11.0751 
4.07857 -53.8187 -2.55261 12.974 -48.7598 -11.0751 21.8695 -47.0051 -11.0751 
-22.6078 -37.5045 -11.0751 -22.6078 -44.9232 -6.66573 -13.5323 -44.9232 -11.0751 
-13.7123 -44.8204 -11.0751 -13.7123 -44.9232 -11.018 27.2001 -44.9232 -11.0751 
30.7649 -42.6229 -11.0751 30.7649 -44.9232 -8.80132 -24.4949 -36.0278 -11.0751 
-31.5033 -30.9669 -11.0751 -31.5033 -36.0278 -8.38959 36.6221 -36.0278 -11.0751 
39.6604 -28.6423 -11.0751 39.6604 -36.0278 -8.12467 -36.3521 -27.1323 -11.0751 
-40.3987 -24.7524 -11.0751 -40.3987 -27.1323 -9.31134 40.1542 -27.1323 -11.0751 
-48.7263 -18.2369 -11.0751 -49.2942 -17.7464 -11.0751 -49.2942 -18.2369 -10.6172 
43.5485 -18.2369 -11.0751 48.5559 -18.2369 -6.94949 -54.9945 -9.34141 -11.0751 
47.5371 -9.34141 -11.0751 48.5559 -7.15041 -11.0751 48.5559 -9.34141 -10.4546 
-57.6854 -0.44595 -11.0751 -58.1896 -0.44595 -7.77998 51.2072 -0.44595 -11.0751 
57.4513 -0.44595 -6.09086 -57.4174 8.44951 -11.0751 53.3374 8.44951 -11.0751 
57.4513 8.44951 -7.79421 -54.552 17.345 -11.0751 -49.2942 25.7818 -11.0751 
51.494 17.345 -11.0751 57.4513 17.345 -5.30172 -48.9696 26.2404 -11.0751 
39.6604 35.1062 -11.0751 49.0236 26.2404 -11.0751 48.5559 26.8935 -11.0751 
-40.6707 35.1359 -11.0751 -40.3987 35.3952 -11.0751 -40.3987 35.1359 -10.1539 
-31.5033 43.3987 -11.0751 39.6316 35.1359 -11.0751 30.7649 43.135 -11.0751 
39.6604 35.1359 -11.0537 -30.4812 44.0313 -11.0751 -22.6078 48.4626 -11.0751 
-13.7123 52.3719 -11.0751 12.974 51.2434 -11.0751 29.3579 44.0313 -11.0751 
21.8695 47.1835 -11.0751 30.7649 44.0313 -9.60504 -10.04 52.9268 -11.0751 
-4.81689 53.6388 -11.0751 -4.81689 52.9268 -4.52811 6.38135 52.9268 -11.0751 
4.07857 53.3868 -11.0751 4.07857 -53.9683 -2.17962 -22.6078 -48.326 -2.17962 
-13.7123 -51.7412 -2.17962 1.96515 -53.8187 -2.17962 -4.81689 -53.3207 -2.17962 
6.36274 -53.8187 -2.17962 4.07857 -53.8187 -0.578068 12.974 -53.3858 -2.17962 
21.8695 -52.0418 -2.17962 30.7649 -48.4984 -2.17962 -28.3036 -44.9232 -2.17962 
-31.5033 -42.6943 -2.17962 -31.5033 -44.9232 2.53996 35.2129 -44.9232 -2.17962 
39.6604 -40.5393 -2.17962 -39.559 -36.0278 -2.17962 -40.3987 -35.2615 -2.17962 
-40.3987 -36.0278 -0.991085 43.1218 -36.0278 -2.17962 -48.1857 -27.1323 -2.17962 
-49.2942 -25.8574 -2.17962 -49.2942 -27.1323 0.188434 48.1798 -27.1323 -2.17962 
48.5559 -26.462 -2.17962 48.5559 -27.1323 -1.28835 -54.3451 -18.2369 -2.17962 
53.058 -18.2369 -2.17962 -57.786 -9.34141 -2.17962 -58.1896 -6.38224 -2.17962 
57.4238 -9.34141 -2.17962 57.4513 -9.27667 -2.17962 57.4513 -9.34141 -2.13033 
-58.9615 -0.44595 -2.17962 -58.1896 4.39144 -2.17962 -58.1896 -0.44595 3.19725 
60.4677 -0.44595 -2.17962 -57.5426 8.44951 -2.17962 61.3802 8.44951 -2.17962 
-53.7045 17.345 -2.17962 -49.2942 23.7775 -2.17962 59.529 17.345 -2.17962 
57.4513 21.4998 -2.17962 -47.27 26.2404 -2.17962 -40.3987 33.135 -2.17962 
54.931 26.2404 -2.17962 48.5559 34.0874 -2.17962 -38.0193 35.1359 -2.17962 
-31.5033 40.3634 -2.17962 47.4733 35.1359 -2.17962 39.6604 41.4814 -2.17962 
-26.2226 44.0313 -2.17962 -22.6078 46.3166 -2.17962 -22.6078 44.0313 3.26617 
-13.7123 50.4449 -2.17962 -4.81689 52.6484 -2.17962 12.974 51.7465 -2.17962 
21.8695 49.7467 -2.17962 35.3081 44.0313 -2.17962 30.7649 46.4326 -2.17962 
30.7649 44.0313 6.06468 -0.892523 52.9268 -2.17962 6.03348 52.9268 -2.17962 
4.07857 53.2722 -2.17962 4.07857 52.9268 -1.17701 -31.5033 -46.6531 6.71584 
-22.6078 -50.539 6.71584 -13.7123 -52.4911 6.71584 -4.81689 -53.0423 6.71584 
4.07857 -53.0983 6.71584 12.974 -52.528 6.71584 21.8695 -51.034 6.71584 
30.7649 -47.9657 6.71584 -34.2498 -44.9232 6.71584 -40.3987 -40.5207 6.71584 
-31.5033 -44.9232 13.458 21.8695 -44.9232 15.586 35.0055 -44.9232 6.71584 
30.7649 -44.9232 10.8782 39.6604 -41.2391 6.71584 -44.895 -36.0278 6.71584 
-49.2942 -30.6564 6.71584 44.5447 -36.0278 6.71584 39.6604 -36.0278 14.3044 
48.5559 -31.123 6.71584 -51.7287 -27.1323 6.71584 51.4906 -27.1323 6.71584 
48.5559 -27.1323 13.5234 -55.6925 -18.2369 6.71584 56.9895 -18.2369 6.71584 
57.4513 -17.3887 6.71584 -57.3769 -9.34141 6.71584 61.2705 -9.34141 6.71584 
-57.6166 -0.44595 6.71584 62.9701 -0.44595 6.71584 -54.9477 8.44951 6.71584 
62.3838 8.44951 6.71584 57.4513 8.44951 14.7193 -50.161 17.345 6.71584 
-49.2942 18.5402 6.71584 -49.2942 17.345 8.13143 59.4919 17.345 6.71584 
57.4513 21.2633 6.71584 57.4513 17.345 9.88596 -42.486 26.2404 6.71584 
-40.3987 28.2396 6.71584 -40.3987 26.2404 9.36979 54.1048 26.2404 6.71584 
48.5559 31.6597 6.71584 48.5559 26.2404 12.648 -32.1191 35.1359 6.71584 
-31.5033 35.6234 6.71584 -31.5033 35.1359 7.39764 -22.6078 42.2574 6.71584 
-22.6078 35.1359 15.5927 30.7649 43.8143 6.71584 44.7011 35.1359 6.71584 
39.6604 39.5484 6.71584 39.6604 35.1359 11.8586 -19.8 44.0313 6.71584 
-13.7123 47.1849 6.71584 -13.7123 44.0313 11.9824 -4.81689 49.5764 6.71584 
-4.81689 44.0313 14.9987 4.07857 49.8991 6.71584 4.07857 44.0313 14.5394 
12.974 48.8559 6.71584 12.974 44.0313 12.9905 30.1617 44.0313 6.71584 
21.8695 46.8375 6.71584 21.8695 44.0313 10.8047 -22.6078 -47.1147 15.6113 
-13.7123 -48.5275 15.6113 -4.81689 -48.3395 15.6113 4.07857 -47.3217 15.6113 
12.974 -46.0696 15.6113 -40.3987 -38.1333 15.6113 -29.663 -44.9232 15.6113 
-31.5033 -44.25 15.6113 -22.6078 -44.9232 17.9599 -13.7123 -44.9232 19.2224 
-4.81689 -44.9232 18.9077 4.07857 -44.9232 17.7695 21.6955 -44.9232 15.6113 
12.974 -44.9232 16.6269 21.8695 -44.8843 15.6113 30.7649 -40.1018 15.6113 
-42.6689 -36.0278 15.6113 -49.2942 -27.4007 15.6113 -40.3987 -36.0278 18.0835 
-31.5033 -36.0278 22.282 -22.6078 -36.0278 23.658 -13.7123 -36.0278 23.8865 
-4.81689 -36.0278 23.3562 4.07857 -36.0278 22.0396 12.974 -36.0278 20.6022 
21.8695 -36.0278 19.5453 37.7237 -36.0278 15.6113 30.7649 -36.0278 18.5295 
39.6604 -34.7323 15.6113 -49.4732 -27.1323 15.6113 -49.2942 -27.1323 15.8438 
-40.3987 -27.1323 23.3117 -4.81689 -27.1323 24.1446 4.07857 -27.1323 23.3684 
12.974 -27.1323 21.8236 21.8695 -27.1323 21.5631 30.7649 -27.1323 21.4868 
[...]
POINT_DATA 518
SCALARS ImageScalars float
LOOKUP_TABLE default
0 0 0 0 0 0 0 0 0 
0 0 0 0 0 0 0 0 0 
0 0 0 0 0 0 0 0 0 
0 0 0 0 0 0 0 0 0 
0 0 0 0 0 0 0 0 0 
0 0 0 0 0 0 0 0 0 
0 0 0 0 0 0 0 0 0 
0 0 0 0 0 0 0 0 0 
0 0 0 0 0 0 0 0 0 
0 0 0 0 0 0 0 0 0 
0 0 0 0 0 0 0 0 0 
0 0 0 0 0 0 0 0 0 
0 0 0 0 0 0 0 0 0 
0 0 0 0 0 0 0 0 0 
0 0 0 0 0 0 0 0 0 
0 0 0 0 0 0 0 0 0 
0 0 0 0 0 0 0 0 0 
0 0 0 0 0 0 0 0 0 
0 0 0 0 0 0 0 0 0 
0 0 0 0 0 0 0 0 0 
0 0 0 0 0 0 0 0 0 
0 0 0 0 0 0 0 0 0 
0 0 0 0 0 0 0 0 0 
0 0 0 0 0 0 0 0 0 
0 0 0 0 0 0 0 0 0 
0 0 0 0 0 0 0 0 0 
0 0 0 0 0 0 0 0 0 
0 0 0 0 0 0 0 0 0 
0 0 0 0 0 0 0 0 0 
0 0 0 0 0 0 0 0 0 
0 0 0 0 0 0 0 0 0 
0 0 0 0 0 0 0 0 0 
0 0 0 0 0 0 0 0 0 
0 0 0 0 0 0 0 0 0 
0 0 0 0 0 0 0 0 0 
0 0 0 0 0 0 0 0 0 
0 0 0 0 0 0 0 0 0 
0 0 0 0 0 0 0 0 0 
0 0 0 0 0 0 0 0 0 
0 0 0 0 0 0 0 0 0 
0 0 0 0 0 0 0 0 0 
0 0 0 0 0 0 0 0 0 
0 0 0 0 0 0 0 0 0 
0 0 0 0 0 0 0 0 0 
0 0 0 0 0 0 0 0 0 
0 0 0 0 0 0 0 0 0 
0 0 0 0 0 0 0 0 0 
0 0 0 0 0 0 0 0 0 
0 0 0 0 0 0 0 0 0 
0 0 0 0 0 0 0 0 0 
0 0 0 0 0 0 0 0 0 
0 0 0 0 0 0 0 0 0 
0 0 0 0 0 0 0 0 0 
0 0 0 0 0 0 0 0 0 
0 0 0 0 0 0 0 0 0 
0 0 0 0 0 0 0 0 0 
0 0 0 0 0 0 0 0 0 
0 0 0 0 0 
NORMALS Normals float
0.0249272 -0.0219667 0.999448 -0.08919 0.0152614 0.995898 0.0931041 0.380559 0.920058 
0.0230277 0.370129 0.928695 -0.162767 0.351975 0.921749 0.25982 0.458844 0.84968 
0.0124835 0.280691 0.959717 -0.0647047 0.30491 0.950181 -0.26888 0.1994 0.942307 
-0.53445 0.0498302 0.84373 0.183745 0.459754 0.868829 0.0442007 0.4566 0.888573 
0.135226 0.483434 0.864873 0.330725 0.387492 0.860506 -0.008694 0.0641467 0.997903 
-0.0464628 -0.00412227 0.998911 -0.0479417 0.0785203 0.995759 -0.40416 -0.107615 0.908336 
0.494369 0.263374 0.828392 0.19777 0.317799 0.927303 0.0344264 0.282163 0.958749 
0.0829446 0.265087 0.96065 0.0348531 0.0524156 0.998017 -0.122959 -0.0521849 0.991039 
0.00193033 0.0181434 0.999834 -0.147586 -0.205733 0.967415 -0.49273 -0.45956 0.738933 
0.564718 0.00944348 0.82523 0.186694 0.0681029 0.980055 -0.00121385 0.112297 0.993674 
-0.0232573 0.125185 0.991861 -0.0166428 0.0095242 0.999816 -0.019089 0.00189037 0.999816 
-0.224683 -0.146951 0.963288 0.675966 -0.291461 0.676846 0.303097 -0.102143 0.94747 
0.0826639 0.0398524 0.99578 -0.00828793 0.0593178 0.998205 -0.0221594 0.0944514 0.995283 
-0.0891772 0.0205459 0.995804 -0.0905478 0.0879231 0.992003 -0.248256 0.0153636 0.968573 
-0.512433 -0.145283 0.846348 0.490091 -0.367985 0.790189 0.109613 -0.107388 0.988156 
0.170611 -0.166576 0.971156 0.0854721 -0.12473 0.988502 -0.0991427 0.0148563 0.994962 
-0.0862075 -0.00638352 0.996257 -0.286773 0.00735902 0.95797 -0.446659 0.0627077 0.892504 
0.429337 -0.499736 0.752286 0.164387 -0.257314 0.952243 -0.0584999 -0.186265 0.980756 
-0.227801 -0.160485 0.960391 -0.363298 -0.0752693 0.928628 -0.30949 -0.0333486 0.950318 
0.360903 -0.704814 0.610726 0.0514736 -0.558984 0.827579 -0.168647 -0.480494 0.86063 
-0.317168 -0.417021 0.851761 0.164659 0.551343 0.817868 0.0486585 0.547354 0.835486 
-0.0640941 0.568405 0.820249 -0.214506 0.622167 0.752924 0.322139 0.355012 0.877607 
0.283434 0.297257 0.911758 0.167444 0.316494 0.933699 0.0785413 0.357089 0.930762 
0.0559413 0.341021 0.93839 -0.00657258 0.367834 0.929868 -0.0352952 0.370746 0.928064 
-0.16478 0.371243 0.913797 -0.180315 0.410401 0.8939 -0.416215 0.389026 0.821841 
0.240032 0.413866 0.878123 0.219275 0.277045 0.935502 0.275135 0.204305 0.939447 
0.201713 0.364578 0.909063 0.233559 0.368542 0.899792 0.226351 0.359054 0.905453 
-0.308144 0.312685 0.898485 -0.522696 0.0864515 0.848125 -0.465319 0.261342 0.845683 
-0.641117 0.217998 0.73583 0.198121 0.477949 0.855753 0.271021 0.546478 0.792407 
0.0342738 0.494484 0.868511 0.059202 0.500575 0.863666 0.101287 0.460453 0.881886 
0.0941699 0.388783 0.916504 0.40603 0.448048 0.796488 0.405692 0.451898 0.794482 
0.399582 0.427984 0.810657 -0.538562 0.051876 0.840987 -0.528134 -0.01521 0.849025 
-0.568572 0.16811 0.805273 0.335774 0.469271 0.816725 0.482304 0.401132 0.778765 
0.49252 0.471728 0.731366 -0.501383 -0.146245 0.852776 -0.499649 -0.132303 0.856064 
-0.428318 0.11794 0.895899 0.638097 0.239477 0.731767 -0.534197 -0.559022 0.634136 
-0.43986 -0.389995 0.808967 -0.436598 -0.449851 0.779113 -0.230246 -0.0963406 0.968352 
-0.248017 0.0643069 0.966619 -0.452166 0.16244 0.877017 0.768264 -0.0366113 0.639085 
-0.561683 -0.517547 0.64549 -0.53622 -0.523883 0.661827 -0.0549517 -0.212599 0.975593 
0.00291045 -0.0581945 0.998301 -0.183827 -0.0177508 0.982798 -0.399925 0.0211579 0.916303 
0.770918 -0.313251 0.55458 0.742358 -0.41405 0.526752 -0.457823 -0.061669 0.886902 
-0.310401 0.0324698 0.950051 -0.0392093 0.0665427 0.997013 -0.0388773 -0.0310549 0.998761 
-0.172183 -0.0958446 0.980391 -0.453804 -0.129804 0.881597 0.707551 -0.50467 0.494651 
0.629727 -0.627815 0.457484 -0.333621 0.152023 0.930369 -0.305139 0.0592331 0.950464 
-0.299052 0.166821 0.939542 -0.121975 0.0809501 0.989227 -0.159106 -0.0882309 0.983311 
-0.284016 -0.211093 0.935294 -0.553727 -0.341067 0.759644 0.610052 -0.649944 0.453222 
0.675385 -0.73664 0.0348851 0.525876 -0.710906 0.466977 -0.302662 -0.0601592 0.951198 
-0.321836 -0.152458 0.93444 -0.298105 -0.139731 0.94425 -0.316176 -0.289742 0.903373 
0.471137 -0.767449 0.434801 0.399327 -0.805181 0.438431 0.152796 -0.819034 0.553026 
-0.0962934 -0.758164 0.644914 -0.335902 -0.420604 0.84277 -0.302885 -0.529725 0.792245 
-0.362098 -0.452232 0.81509 -0.375957 -0.593367 0.711739 0.0310217 -0.975781 0.216537 
-0.131054 -0.95159 0.27803 0.166932 0.659083 0.73331 0.0388553 0.706443 0.706702 
0.00361624 0.985105 0.171913 -0.0883066 0.724596 0.683493 -0.228466 0.693042 0.683737 
0.335711 0.392607 0.856247 0.435648 0.652308 0.620246 0.271287 0.54585 0.792749 
0.273628 0.542729 0.794086 0.273705 0.547098 0.791056 -0.379726 0.63681 0.671029 
-0.475487 0.569135 0.670819 -0.514039 0.674137 0.53038 0.333265 0.384659 0.860797 
0.309231 0.437352 0.844452 0.409047 0.515696 0.75282 -0.60506 0.398521 0.689264 
-0.649838 0.250912 0.717463 -0.718585 0.443615 0.535576 0.338014 0.48844 0.80447 
0.378181 0.555068 0.740863 0.430767 0.55788 0.709373 -0.64622 0.227361 0.728496 
0.55717 0.552329 0.620076 0.57738 0.545989 0.607065 0.583343 0.548813 0.598761 
-0.583057 0.226934 0.780093 -0.660777 0.328691 0.674786 0.809856 0.400138 0.428979 
-0.520789 0.233111 0.821242 -0.515309 0.22498 0.826947 -0.540216 0.250796 0.803286 
0.954156 0.103719 0.280764 0.984845 0.0532095 0.165074 -0.511706 0.177415 0.840643 
-0.746979 0.210547 0.630628 0.970732 -0.159108 0.179901 -0.527293 0.00524532 0.849668 
-0.743425 -0.0207249 0.668498 0.912648 -0.399496 0.0864727 0.803635 -0.594534 0.0264728 
-0.544471 -0.162834 0.822822 -0.829609 -0.309425 0.464763 0.7968 -0.603796 0.0232434 
-0.486578 -0.51714 0.704136 -0.572133 -0.345412 0.743878 -0.564834 -0.359504 0.742778 
0.67593 -0.736645 -0.0217506 0.672427 -0.739825 -0.0223887 0.670115 -0.740659 -0.0486737 
0.575803 -0.816774 -0.0364685 -0.486728 -0.517395 0.703845 -0.436361 -0.67483 0.595142 
-0.487714 -0.518726 0.702181 0.560994 -0.827052 -0.0356576 0.463015 -0.886165 -0.0181444 
0.255622 -0.966108 0.0359451 -0.30095 -0.887952 0.347809 -0.434177 -0.699525 0.567587 
-0.391467 -0.747787 0.536254 -0.449065 -0.759766 0.470208 0.168919 -0.9833 0.0677313 
0.0523305 -0.992314 0.112135 0.125976 -0.984366 -0.123098 -0.158191 -0.955643 0.24844 
-0.11619 -0.966729 0.227894 0.0025714 0.988124 0.153636 0.415647 0.80214 0.428731 
0.251262 0.917074 0.309584 0.030458 0.986015 0.163852 0.120558 0.971526 0.203967 
-0.0250804 0.988206 0.151063 -0.00246767 0.997069 0.0764727 -0.104531 0.983467 0.147871 
-0.246318 0.955898 0.159958 -0.526122 0.826849 0.19879 0.471858 0.73403 0.488415 
0.481072 0.700172 0.527568 0.502784 0.818658 0.277501 -0.640317 0.73626 0.218897 
-0.74188 0.614461 0.268425 0.570866 0.607728 0.552068 0.576545 0.605066 0.549082 
0.599892 0.628518 0.49507 -0.791377 0.521879 0.318379 0.6863 0.564725 0.458343 
0.714684 0.553121 0.428116 0.753735 0.56135 0.341714 -0.753 0.472775 0.457684 
-0.75075 0.471275 0.462898 -0.768209 0.491947 0.409687 0.853835 0.431218 0.291574 
-0.752561 0.396302 0.525925 0.966636 0.238459 0.0935567 0.986329 0.153993 0.0586553 
-0.760783 0.349988 0.546551 -0.761692 0.349019 0.545904 -0.762702 0.350241 0.543706 
0.999874 -0.014794 -0.00568813 0.986083 -0.15316 -0.0646696 0.981722 -0.0798242 -0.172772 
-0.870596 0.178966 0.458293 0.956612 -0.2663 -0.11823 -0.939372 -0.0527793 0.338814 
0.856762 -0.473747 -0.203771 0.757826 -0.607431 -0.238176 -0.900209 -0.327393 0.287119 
-0.869996 -0.414389 0.267185 0.722025 -0.642011 -0.257882 0.633992 -0.719695 -0.283008 
-0.828034 -0.517401 0.215999 -0.70546 -0.697653 0.124925 0.614972 -0.734516 -0.286872 
0.567986 -0.759467 -0.317177 -0.686745 -0.716439 0.122867 -0.562208 -0.816989 0.12826 
0.524285 -0.801212 -0.288416 0.483387 -0.832257 -0.271451 0.501162 -0.783611 -0.367138 
0.31433 -0.914223 -0.25572 0.149692 -0.96646 -0.208679 -0.185603 -0.975888 -0.114868 
-0.284206 -0.958194 -0.0330359 -0.479272 -0.875381 0.0632987 -0.408482 -0.912623 0.0161885 
-0.328918 -0.856036 -0.398767 0.0618221 -0.978544 -0.196543 -0.0841633 -0.982463 -0.166383 
-0.0536209 -0.982585 -0.177909 -0.0511989 -0.976448 -0.209589 0.49212 0.86929 0.0463994 
0.290521 0.955612 -0.0490202 0.135062 0.980787 -0.140769 0.0338011 0.973586 -0.225805 
-0.0278959 0.953499 -0.300101 -0.110293 0.943787 -0.311613 -0.220176 0.917318 -0.331739 
-0.458023 0.837031 -0.299322 0.539108 0.840809 0.0490207 0.649379 0.757901 0.062392 
0.432686 0.839739 -0.328056 -0.20047 0.606556 -0.769352 -0.567106 0.776623 -0.274313 
-0.446433 0.724587 -0.525044 -0.66397 0.71824 -0.208025 0.724764 0.68467 0.0771039 
0.812655 0.580961 0.0455594 -0.741325 0.659592 -0.124001 -0.502249 0.610048 -0.612851 
-0.802581 0.595386 -0.0371269 0.859578 0.509618 0.0376091 -0.8311 0.555879 -0.0164652 
-0.692081 0.574261 -0.437319 0.953968 0.288003 -0.0836663 -0.860966 0.503111 0.0749522 
-0.870141 0.487239 0.0738357 0.973401 0.0998947 -0.206184 -0.952728 0.30347 0.0146601 
0.948183 -0.124788 -0.292195 -0.995567 0.0617293 -0.070958 0.861965 -0.342879 -0.37343 
-0.966661 -0.183372 -0.178719 -0.69047 -0.247175 -0.67982 0.746589 -0.517755 -0.417774 
0.730353 -0.537514 -0.421502 0.725583 -0.520434 -0.450197 -0.875174 -0.39844 -0.274437 
-0.836031 -0.47262 -0.278716 -0.802849 -0.390358 -0.450615 0.624644 -0.637228 -0.451398 
0.600854 -0.655518 -0.457461 0.586587 -0.63167 -0.506861 -0.740421 -0.592066 -0.318173 
-0.635751 -0.667685 -0.387321 -0.550307 -0.54767 -0.630254 0.547173 -0.697124 -0.463271 
0.544985 -0.698902 -0.463172 0.542136 -0.692336 -0.476193 0.501317 -0.744163 -0.441478 
0.452659 -0.597844 -0.661575 -0.319655 -0.842635 -0.433344 -0.600321 -0.693642 -0.39809 
-0.522378 -0.759238 -0.388174 -0.49701 -0.625373 -0.601572 0.452315 -0.778519 -0.435108 
0.333578 -0.843996 -0.419996 0.322097 -0.763058 -0.560354 0.131882 -0.893617 -0.429016 
0.0717317 -0.722004 -0.68816 -0.034834 -0.8812 -0.471459 -0.0743518 -0.688655 -0.721267 
-0.150703 -0.871391 -0.466869 -0.133465 -0.715498 -0.685748 -0.313599 -0.844676 -0.433795 
-0.241206 -0.862593 -0.444695 -0.225611 -0.781144 -0.582163 0.209772 0.795493 -0.568494 
0.0572501 0.793117 -0.606373 -0.0537158 0.746671 -0.663021 -0.09809 0.686554 -0.720432 
-0.106986 0.635422 -0.764717 0.585727 0.697637 -0.412586 0.358348 0.801831 -0.478178 
0.395113 0.796301 -0.458028 0.177936 0.719739 -0.671054 0.0401439 0.653647 -0.755734 
-0.0699515 0.620193 -0.781324 -0.106425 0.599695 -0.79312 -0.198368 0.605845 -0.770456 
-0.10721 0.592176 -0.798645 -0.200013 0.60464 -0.770977 -0.317023 0.545613 -0.775759 
0.636027 0.656949 -0.404831 0.786721 0.440497 -0.432473 0.552406 0.635052 -0.53996 
0.241358 0.486077 -0.839926 0.0775839 0.355769 -0.931348 -0.0160721 0.295263 -0.955281 
-0.103049 0.25437 -0.961601 -0.149651 0.27267 -0.950398 -0.13185 0.244439 -0.960659 
-0.104831 0.309559 -0.945084 -0.421173 0.568441 -0.706744 -0.235139 0.456139 -0.858281 
-0.447106 0.566024 -0.692613 0.789667 0.43407 -0.433601 0.7839 0.43335 -0.444644 
0.408304 0.291328 -0.86511 -0.11464 0.0332207 -0.992851 -0.129208 0.0345733 -0.991015 
-0.100798 0.0571879 -0.993262 -0.0183901 0.149003 -0.988666 -0.103426 0.218112 -0.970428 
-0.584673 0.541542 -0.604061 -0.297714 0.409845 -0.862203 -0.618338 0.540111 -0.57091 
0.847133 0.190352 -0.496118 0.711245 0.168146 -0.682537 -0.146798 0.0287187 -0.98875 
-0.13202 0.0237837 -0.990962 -0.0201654 0.00607318 -0.999778 0.0803787 0.0650991 -0.994636 
0.0393417 0.125787 -0.991277 -0.121406 0.234133 -0.964594 -0.708964 0.446774 -0.545676 
-0.482512 0.341884 -0.80641 -0.7834 0.232922 -0.576222 0.826016 0.0175035 -0.563375 
0.65962 -0.045845 -0.7502 -0.158659 0.127464 -0.979071 -0.0575317 0.0949952 -0.993814 
0.10684 0.0347727 -0.993668 0.0625593 0.0462751 -0.996968 -0.100357 0.0353033 -0.994325 
-0.356259 0.0709566 -0.931689 -0.790073 0.182064 -0.585352 -0.76976 0.179108 -0.61269 
0.75346 -0.181118 -0.632056 0.626286 -0.190215 -0.756032 0.299573 -0.180955 -0.936756 
-0.110623 0.0874532 -0.990007 0.0336347 0.0602949 -0.997614 0.0433241 -0.0114309 -0.998996 
-0.106545 -0.0587917 -0.992568 -0.328027 -0.078158 -0.94143 -0.755484 -0.0467705 -0.653496 
-0.681983 -0.185711 -0.707398 -0.702376 -0.0598543 -0.709285 0.678872 -0.368905 -0.634856 
0.674166 -0.375936 -0.635746 0.67064 -0.367854 -0.644147 0.355816 -0.285169 -0.889985 
0.161869 -0.189428 -0.96846 -0.137613 -0.089075 -0.986473 0.0189279 -0.00966163 -0.999774 
0.00953064 0.0531907 -0.998539 -0.0556665 -0.0139314 -0.998352 -0.165428 -0.127258 -0.977977 
-0.632843 -0.247521 -0.73365 -0.377844 -0.210887 -0.901533 0.570545 -0.483518 -0.663843 
0.533936 -0.520467 -0.666353 0.50244 -0.455383 -0.73497 0.297525 -0.313322 -0.901836 
0.233914 -0.156388 -0.959597 -0.154507 -0.0500491 -0.986723 0.0339947 -0.0586654 -0.997699 
0.029115 -0.0527669 -0.998182 -0.134538 -0.126207 -0.982838 -0.298542 -0.237977 -0.924251 
-0.532528 -0.355198 -0.768276 -0.484312 -0.422997 -0.765843 -0.451789 -0.340204 -0.824711 
0.477745 -0.566562 -0.671392 0.468781 -0.570235 -0.674594 0.446462 -0.537688 -0.715236 
0.452409 -0.597333 -0.662207 0.339983 -0.385351 -0.857855 0.141905 -0.302668 -0.942473 
-0.0899507 -0.254968 -0.962757 -0.102616 -0.161378 -0.981543 0.010217 -0.20571 -0.97856 
-0.0608912 -0.265637 -0.962148 -0.222857 -0.336571 -0.914907 -0.45748 -0.462808 -0.75929 
-0.428726 -0.493591 -0.756678 -0.384189 -0.401744 -0.831265 0.45208 -0.597551 -0.662236 
0.299578 -0.667536 -0.681651 0.248023 -0.509978 -0.823655 0.0650524 -0.696811 -0.714299 
0.00981751 -0.434468 -0.900634 -0.0811056 -0.636385 -0.767096 -0.0984084 -0.383579 -0.91825 
-0.113132 -0.600685 -0.791441 -0.0824564 -0.424277 -0.90177 -0.17057 -0.622731 -0.763617 
-0.127694 -0.509315 -0.851053 -0.323463 -0.583165 -0.745179 -0.275141 -0.608317 -0.744479 
-0.270564 -0.576581 -0.77094 0.147729 0.28703 -0.946462 0.0419565 0.270377 -0.96184 
-0.0453711 0.208417 -0.976987 0.243219 0.241769 -0.939357 0.307415 0.123846 -0.943482 
0.11511 0.209876 -0.970928 -0.00378575 0.15409 -0.98805 -0.107694 0.0461887 -0.993111 
-0.0896128 0.0786193 -0.992869 0.315939 0.0829418 -0.945147 0.282798 0.0752502 -0.956223 
0.0884863 0.0512608 -0.994758 -0.0687475 0.0269956 -0.997269 -0.14439 0.0221161 -0.989274 
-0.141289 0.0096838 -0.989921 -0.109208 0.0682934 -0.99167 0.315333 -0.0678681 -0.946551 
0.287643 -0.101121 -0.952384 0.282399 -0.0657923 -0.957038 0.0695443 -0.0691322 -0.995181 
-0.0484727 -0.076382 -0.9959 -0.0863368 -0.00196732 -0.996264 -0.109662 0.0891831 -0.98996 
-0.0974899 0.0801066 -0.992007 -0.136343 0.0364132 -0.989992 0.188978 -0.170296 -0.967102 
0.120173 -0.174133 -0.977362 0.0824455 -0.160398 -0.983603 -0.00108987 -0.0914031 -0.995813 
0.0137618 0.01134 -0.999841 -0.0199288 0.0732173 -0.997117 -0.118512 0.00481656 -0.992941 
-0.126219 -0.043307 -0.991057 -0.119763 -0.0250036 -0.992488 0.124522 -0.0693509 -0.98979 
0.140128 -0.0747151 -0.98731 0.121687 -0.0590869 -0.990808 0.0803037 0.0437055 -0.995812 
-0.137879 -0.0399031 -0.989645 -0.135657 0.0314737 -0.990256 0.207377 -0.141536 -0.967968 
0.133212 -0.261882 -0.955862 0.103877 -0.093283 -0.990206 -0.156759 -0.0686531 -0.985248 
-0.0967964 -0.23951 -0.966057 -0.154507 -0.090868 -0.983804 
